t; ions.mdp - used as input into grompp to generate ions.tpr
integrator  = steep         ; Algorithm (steepest descent minimization)
emtol       = 1000.0        ; Stop minimization when Fmax < 1000.0 kJ/mol/nm
emstep      = 0.01          ; Minimization step size (nm)
nsteps      = 50000         ; Maximum number of steps
nstlist         = 1         ; Frequency to update neighbor list
cutoff-scheme   = Verlet    ; Buffered neighbor searching
ns_type         = grid      ; Method to determine neighbor list
coulombtype     = cutoff    ; Treatment of long range electrostatic interactions
rcoulomb        = 1.0       ; Short-range electrostatic cut-off
rvdw            = 1.0       ; Short-range Van der Waals cut-off
pbc             = xyz       ; Periodic Boundary Conditions in all 3 dimensions
