; minim.mdp - parameters for steepest-descents energy minimization
integrator  = steep         ; Algorithm (steepest descent minimization)
emtol       = 1000.0        ; Stop minimization when Fmax < 1000.0 kJ/mol/nm
emstep      = 0.01          ; Minimization step size (nm)
nsteps      = 50000         ; Maximum number of minimization steps to perform
nstlist         = 1         ; Frequency to update neighbor list
cutoff-scheme   = Verlet    ; Buffered neighbor searching
ns_type         = grid      ; Method to determine neighbor list
coulombtype     = PME       ; Particle Mesh Ewald for long-range electrostatics
rcoulomb        = 1.0       ; Short-range electrostatic cut-off
rvdw            = 1.0       ; Short-range Van der Waals cut-off
pbc             = xyz       ; Periodic Boundary Conditions
